
#(C) 2024 by FIZ Karlsruhe - Leibniz Institute for Information Infrastructure.  All rights reserved.
data_181183-ICSD
_database_code_ICSD 181183
_audit_creation_date 2012-02-01
_chemical_name_common 'Yttrium manganate(III) - RT'
_chemical_formula_structural 'Y (Mn O3)'
_chemical_formula_sum 'Mn1 O3 Y1'
_chemical_name_structure_type LuMnO3
_exptl_crystal_density_diffrn 5.13
_diffrn_ambient_temperature 293.
_citation_title 'High-temperature phase transitions of hexagonal Y Mn O3'
loop_
_citation_id
_citation_journal_full
_citation_year
_citation_journal_volume
_citation_page_first
_citation_page_last
_citation_journal_id_ASTM
primary 'Physical Review B: Condensed Matter and Materials Physics' 2011 83 1 9
PRBMDO
loop_
_citation_author_citation_id
_citation_author_name
primary 'Gibbs, A.S.'
primary 'Knight, K.S.'
primary 'Lightfoot, P.'
_cell_length_a 6.14151(9)
_cell_length_b 6.14151(9)
_cell_length_c 11.4013(2)
_cell_angle_alpha 90.
_cell_angle_beta 90.
_cell_angle_gamma 120.
_cell_volume 372.42
_cell_formula_units_Z 6
_space_group_name_H-M_alt 'P 63 c m'
_space_group_IT_number 185
loop_
_space_group_symop_id
_space_group_symop_operation_xyz
1 'x, x-y, z+1/2'
2 '-x+y, y, z+1/2'
3 '-y, -x, z+1/2'
4 'x-y, x, z+1/2'
5 'y, -x+y, z+1/2'
6 '-x, -y, z+1/2'
7 '-x, -x+y, z'
8 'x-y, -y, z'
9 'y, x, z'
10 '-x+y, -x, z'
11 '-y, x-y, z'
12 'x, y, z'
loop_
_atom_type_symbol
_atom_type_oxidation_number
Y3+ 3
Mn3+ 3
O2- -2
loop_
_atom_site_label
_atom_site_type_symbol
_atom_site_symmetry_multiplicity
_atom_site_Wyckoff_symbol
_atom_site_fract_x
_atom_site_fract_y
_atom_site_fract_z
_atom_site_U_iso_or_equiv
_atom_site_occupancy
Y1 Y3+ 2 a 0. 0. 0.2728(5) 0.0116(7) 1.
Y2 Y3+ 4 b 0.3333 0.6667 0.2325(4) 0.0130(5) 1.
Mn1 Mn3+ 6 c 0.3177(9) 0. 0. 0.0080(5) 1.
O1 O2- 6 c 0.3074(4) 0. 0.1626(4) 0.0155(7) 1.
O2 O2- 6 c 0.6427(3) 0. 0.3355(4) 0.0105(6) 1.
O3 O2- 2 a 0. 0. 0.4744(6) 0.0125(10) 1.
O4 O2- 4 b 0.3333 0.6667 0.0169(5) 0.0142(7) 1.
#End of TTdata_181183-ICSD